
             +---------------------------------------------------+
             |                                                   |
             |                   WANNIER90                       |
             |                                                   |
             +---------------------------------------------------+
             |                                                   |
             |        Welcome to the Maximally-Localized         |
             |        Generalized Wannier Functions code         |
             |            http://www.wannier.org                 |
             |                                                   |
             |                                                   |
             |  Wannier90 Developer Group:                       |
             |    Giovanni Pizzi    (EPFL)                       |
             |    Valerio Vitale    (Cambridge)                  |
             |    David Vanderbilt  (Rutgers University)         |
             |    Nicola Marzari    (EPFL)                       |
             |    Ivo Souza         (Universidad del Pais Vasco) |
             |    Arash A. Mostofi  (Imperial College London)    |
             |    Jonathan R. Yates (University of Oxford)       |
             |                                                   |
             |  For the full list of Wannier90 3.x authors,      |
             |  please check the code documentation and the      |
             |  README on the GitHub page of the code            |
             |                                                   |
             |                                                   |
             |  Please cite                                      |
             |                                                   |
             |  [ref] "Wannier90 as a community code:            |
             |        new features and applications",            |
             |        G. Pizzi et al., J. Phys. Cond. Matt. 32,  |
             |        165902 (2020).                             |
             |        http://doi.org/10.1088/1361-648X/ab51ff    |
             |                                                   |
             |  in any publications arising from the use of      |
             |  this code. For the method please cite            |
             |                                                   |
             |  [ref] "Maximally Localized Generalised Wannier   |
             |         Functions for Composite Energy Bands"     |
             |         N. Marzari and D. Vanderbilt              |
             |         Phys. Rev. B 56 12847 (1997)              |
             |                                                   |
             |  [ref] "Maximally Localized Wannier Functions     |
             |         for Entangled Energy Bands"               |
             |         I. Souza, N. Marzari and D. Vanderbilt    |
             |         Phys. Rev. B 65 035109 (2001)             |
             |                                                   |
             |                                                   |
             | Copyright (c) 1996-2020                           |
             |        The Wannier90 Developer Group and          |
             |        individual contributors                    |
             |                                                   |
             |      Release: 3.1.0        5th March    2020      |
             |                                                   |
             | This program is free software; you can            |
             | redistribute it and/or modify it under the terms  |
             | of the GNU General Public License as published by |
             | the Free Software Foundation; either version 2 of |
             | the License, or (at your option) any later version|
             |                                                   |
             | This program is distributed in the hope that it   |
             | will be useful, but WITHOUT ANY WARRANTY; without |
             | even the implied warranty of MERCHANTABILITY or   |
             | FITNESS FOR A PARTICULAR PURPOSE. See the GNU     |
             | General Public License for more details.          |
             |                                                   |
             | You should have received a copy of the GNU General|
             | Public License along with this program; if not,   |
             | write to the Free Software Foundation, Inc.,      |
             | 675 Mass Ave, Cambridge, MA 02139, USA.           |
             |                                                   |
             +---------------------------------------------------+
             |    Execution started on 22Jun2026 at 19:45:44     |
             +---------------------------------------------------+
 
 ******************************************************************************
 * -> Using CODATA 2006 constant values                                       *
 *    (http://physics.nist.gov/cuu/Constants/index.html)                      *
 * -> Using Bohr value from CODATA                                            *
 ******************************************************************************
 

 Running in serial (with parallel executable)

                                    ------
                                    SYSTEM
                                    ------

                              Lattice Vectors (Ang)
                    a_1     2.467231   0.000000   0.000000
                    a_2    -1.233616   2.136685   0.000000
                    a_3     0.000000   0.000000  15.000000

                   Unit Cell Volume:      79.07544  (Ang^3)

                        Reciprocal-Space Vectors (Ang^-1)
                    b_1     2.546654   1.470312  -0.000000
                    b_2     0.000000   2.940623   0.000000
                    b_3     0.000000  -0.000000   0.418879
  
 *----------------------------------------------------------------------------*
 |   Site       Fractional Coordinate          Cartesian Coordinate (Ang)     |
 +----------------------------------------------------------------------------+
 | C    1   0.66667   0.33333   0.50000   |    1.23362   0.71223   7.50000    |
 | C    2   0.33333   0.66667   0.50000   |   -0.00000   1.42446   7.50000    |
 *----------------------------------------------------------------------------*
                                ------------
                                K-POINT GRID
                                ------------
  
             Grid size = 12 x 12 x  1      Total points =  144
  
  
 *---------------------------------- MAIN ------------------------------------*
 |  Number of Wannier Functions               :                 2             |
 |  Number of Objective Wannier Functions     :                 2             |
 |  Number of input Bloch states              :                16             |
 |  Output verbosity (1=low, 5=high)          :                 1             |
 |  Timing Level (1=low, 5=high)              :                 1             |
 |  Optimisation (0=memory, 3=speed)          :                 3             |
 |  Length Unit                               :               Ang             |
 |  Post-processing setup (write *.nnkp)      :                 F             |
 |  Using Gamma-only branch of algorithms     :                 F             |
 |  Using symmetry-adapted WF mode            :                 T             |
 |  Tolerance for symmetry condition on U     :         0.100E-07             |
 *----------------------------------------------------------------------------*
 *------------------------------- WANNIERISE ---------------------------------*
 |  Total number of iterations                :              1000             |
 |  Number of CG steps before reset           :                 5             |
 |  Trial step length for line search         :             2.000             |
 |  Convergence tolerence                     :         0.100E-09             |
 |  Convergence window                        :                -1             |
 |  Iterations between writing output         :                 1             |
 |  Iterations between backing up to disk     :               100             |
 |  Write r^2_nm to file                      :                 F             |
 |  Write xyz WF centres to file              :                 T             |
 |  Write on-site energies <0n|H|0n> to file  :                 F             |
 |  Use guiding centre to control phases      :                 T             |
 |  Use phases for initial projections        :                 F             |
 |  Iterations before starting guiding centres:                 0             |
 |  Iterations between using guiding centres  :                 1             |
 *----------------------------------------------------------------------------*
 *------------------------------- DISENTANGLE --------------------------------*
 |  Using band disentanglement                :                 T             |
 |  Total number of iterations                :              1000             |
 |  Mixing ratio                              :             0.500             |
 |  Convergence tolerence                     :         1.000E-10             |
 |  Convergence window                        :                 3             |
 *----------------------------------------------------------------------------*
 *-------------------------------- PLOTTING ----------------------------------*
 |  Plotting interpolated bandstructure       :                 T             |
 |   Number of K-path sections                :                 3             |
 |   Divisions along first K-path section     :               100             |
 |   Output format                            :           gnuplot             |
 |   Output mode                              :               s-k             |
 *----------------------------------------------------------------------------*
 |   K-space path sections:                                                   |
 |    From: G       0.000  0.000  0.000     To: M       0.500  0.000  0.000   |
 |    From: M       0.500  0.000  0.000     To: K       0.333  0.333  0.000   |
 |    From: K       0.333  0.333  0.000     To: G       0.000  0.000  0.000   |
 *----------------------------------------------------------------------------*
 |  Plotting Hamiltonian in WF basis          :                 T             |
 *----------------------------------------------------------------------------*
 Time to read parameters        0.011 (sec)

 *---------------------------------- K-MESH ----------------------------------*
 +----------------------------------------------------------------------------+
 |                    Distance to Nearest-Neighbour Shells                    |
 |                    ------------------------------------                    |
 |          Shell             Distance (Ang^-1)          Multiplicity         |
 |          -----             -----------------          ------------         |
 |             1                   0.245052                      6            |
 |             2                   0.418879                      2            |
 |             3                   0.424442                      6            |
 |             4                   0.485294                     12            |
 |             5                   0.490104                      6            |
 |             6                   0.596331                     12            |
 |             7                   0.644718                     12            |
 |             8                   0.648346                     12            |
 |             9                   0.735156                      6            |
 |            10                   0.771889                     24            |
 |            11                   0.837758                      2            |
 |            12                   0.846117                     12            |
 |            13                   0.848885                      6            |
 |            14                   0.872863                     12            |
 |            15                   0.883547                     12            |
 |            16                   0.939143                     12            |
 |            17                   0.946607                     12            |
 |            18                   0.970588                     12            |
 |            19                   0.977812                     24            |
 |            20                   0.980208                      6            |
 |            21                   1.059335                     24            |
 |            22                   1.065958                     12            |
 |            23                   1.068157                     12            |
 |            24                   1.114582                     12            |
 |            25                   1.122969                     12            |
 |            26                   1.147353                     24            |
 |            27                   1.192663                     12            |
 |            28                   1.198549                     24            |
 |            29                   1.217577                     24            |
 |            30                   1.225260                      6            |
 |            31                   1.256637                      2            |
 |            32                   1.273327                      6            |
 |            33                   1.280307                     12            |
 |            34                   1.289436                     12            |
 |            35                   1.294883                     12            |
 |            36                   1.296693                     12            |
 +----------------------------------------------------------------------------+
 | The b-vectors are chosen automatically                                     |
 | The following shells are used:   1,  2                                     |
 +----------------------------------------------------------------------------+
 |                        Shell   # Nearest-Neighbours                        |
 |                        -----   --------------------                        |
 |                          1               6                                 |
 |                          2               2                                 |
 +----------------------------------------------------------------------------+
 | Completeness relation is fully satisfied [Eq. (B1), PRB 56, 12847 (1997)]  |
 +----------------------------------------------------------------------------+
 |                  b_k Vectors (Ang^-1) and Weights (Ang^2)                  |
 |                  ----------------------------------------                  |
 |            No.         b_k(x)      b_k(y)      b_k(z)        w_b           |
 |            ---        --------------------------------     --------        |
 |             1         0.000000    0.245052    0.000000     5.550889        |
 |             2         0.212221    0.122526    0.000000     5.550889        |
 |             3         0.000000   -0.245052    0.000000     5.550889        |
 |             4         0.212221   -0.122526    0.000000     5.550889        |
 |             5        -0.212221   -0.122526    0.000000     5.550889        |
 |             6        -0.212221    0.122526    0.000000     5.550889        |
 |             7         0.000000    0.000000    0.418879     2.849658        |
 |             8         0.000000    0.000000   -0.418879     2.849658        |
 +----------------------------------------------------------------------------+
 |                           b_k Directions (Ang^-1)                          |
 |                           -----------------------                          |
 |            No.           x           y           z                         |
 |            ---        --------------------------------                     |
 |             1         0.000000    0.245052    0.000000                     |
 |             2         0.212221    0.122526    0.000000                     |
 |             3         0.212221   -0.122526    0.000000                     |
 |             4         0.000000    0.000000    0.418879                     |
 +----------------------------------------------------------------------------+
  
 Time to get kmesh              0.053 (sec)
 *============================================================================*
 |                              MEMORY ESTIMATE                               |
 |         Maximum RAM allocated during each phase of the calculation         |
 *============================================================================*
 |                        Disentanglement            5.90 Mb                  |
 |                            Wannierise:            0.41 Mb                  |
 |                          plot_wannier:            0.41 Mb                  |
 *----------------------------------------------------------------------------*
  
 Starting a new Wannier90 calculation ...


 Reading overlaps from graphene.mmn    :  Created on 22Jun2026 at 19:43:45

 Reading projections from graphene.amn :  Created on 22Jun2026 at 19:43:44

 Time to read overlaps          0.242 (sec)

 *------------------------------- DISENTANGLE --------------------------------*
 +----------------------------------------------------------------------------+
 |                              Energy  Windows                               |
 |                              ---------------                               |
 |                   Outer:  -12.00000  to    6.00000  (eV)                   |
 |                   No frozen states were specified                          |
 +----------------------------------------------------------------------------+
   Number of target bands to extract:    2

                   Unitarised projection of Wannier functions                  
                   ------------------------------------------                  
   A_mn = <psi_m|g_n> --> S = A.A^+ --> U = S^-1/2.A
   In dis_project... done
   No inner window (linner = F)

                   Extraction of optimally-connected subspace                  
                   ------------------------------------------                  
 +---------------------------------------------------------------------+<-- DIS
 |  Iter     Omega_I(i-1)      Omega_I(i)      Delta (frac.)    Time   |<-- DIS
 +---------------------------------------------------------------------+<-- DIS
       1       7.77561680       7.04546740       1.036E-01      0.00    <-- DIS
       2       7.35499762       6.71170584       9.585E-02      0.02    <-- DIS
       3       7.01317962       6.55906204       6.924E-02      0.04    <-- DIS
       4       6.77061658       6.44071812       5.122E-02      0.06    <-- DIS
       5       6.59328952       6.34632414       3.891E-02      0.08    <-- DIS
       6       6.45987465       6.27063250       3.018E-02      0.10    <-- DIS
       7       6.35725194       6.20962426       2.377E-02      0.12    <-- DIS
       8       6.27694395       6.16002284       1.898E-02      0.14    <-- DIS
       9       6.21315008       6.11915942       1.536E-02      0.16    <-- DIS
      10       6.16169949       6.08486107       1.263E-02      0.18    <-- DIS
      11       6.11947081       6.05533997       1.059E-02      0.20    <-- DIS
      12       6.08404727       6.02909259       9.115E-03      0.22    <-- DIS
      13       6.05349593       6.00481783       8.107E-03      0.24    <-- DIS
      14       6.02621865       5.98135381       7.501E-03      0.26    <-- DIS
      15       6.00084834       5.95763433       7.254E-03      0.29    <-- DIS
      16       5.97617769       5.93266458       7.334E-03      0.31    <-- DIS
      17       5.95111390       5.90551784       7.721E-03      0.33    <-- DIS
      18       5.92465721       5.87535506       8.391E-03      0.35    <-- DIS
      19       5.89590295       5.84146870       9.319E-03      0.37    <-- DIS
      20       5.86406744       5.80334991       1.046E-02      0.39    <-- DIS
      21       5.82853696       5.76077262       1.176E-02      0.41    <-- DIS
      22       5.78893506       5.71387888       1.314E-02      0.43    <-- DIS
      23       5.74519681       5.66324074       1.447E-02      0.45    <-- DIS
      24       5.69763095       5.60986667       1.564E-02      0.47    <-- DIS
      25       5.64694468       5.55512767       1.653E-02      0.49    <-- DIS
      26       5.59420850       5.50060059       1.702E-02      0.51    <-- DIS
      27       5.54075243       5.44785949       1.705E-02      0.53    <-- DIS
      28       5.48800837       5.39827029       1.662E-02      0.55    <-- DIS
      29       5.43733451       5.35284453       1.578E-02      0.57    <-- DIS
      30       5.38986495       5.31218119       1.462E-02      0.59    <-- DIS
      31       5.34641623       5.27649057       1.325E-02      0.61    <-- DIS
      32       5.30746021       5.24567154       1.178E-02      0.63    <-- DIS
      33       5.27315238       5.21940717       1.030E-02      0.65    <-- DIS
      34       5.24339376       5.19725478       8.878E-03      0.67    <-- DIS
      35       5.21790477       5.17871723       7.567E-03      0.69    <-- DIS
      36       5.19629523       5.16329327       6.392E-03      0.71    <-- DIS
      37       5.17812203       5.15050922       5.361E-03      0.73    <-- DIS
      38       5.16293200       5.13993650       4.474E-03      0.75    <-- DIS
      39       5.15029064       5.13119902       3.721E-03      0.77    <-- DIS
      40       5.13979939       5.12397431       3.088E-03      0.79    <-- DIS
      41       5.13110413       5.11799056       2.562E-03      0.81    <-- DIS
      42       5.12389780       5.11302164       2.127E-03      0.83    <-- DIS
      43       5.11791894       5.10888128       1.769E-03      0.85    <-- DIS
      44       5.11294812       5.10541722       1.475E-03      0.87    <-- DIS
      45       5.10880318       5.10250559       1.234E-03      0.89    <-- DIS
      46       5.10533421       5.10004603       1.037E-03      0.90    <-- DIS
      47       5.10241856       5.09795734       8.751E-04      0.92    <-- DIS
      48       5.09995638       5.09617394       7.422E-04      0.94    <-- DIS
      49       5.09786661       5.09464283       6.328E-04      0.96    <-- DIS
      50       5.09608355       5.09332114       5.424E-04      0.98    <-- DIS
      51       5.09455399       5.09217416       4.673E-04      1.00    <-- DIS
      52       5.09323482       5.09117368       4.048E-04      1.02    <-- DIS
      53       5.09209109       5.09029673       3.525E-04      1.04    <-- DIS
      54       5.09109436       5.08952452       3.084E-04      1.06    <-- DIS
      55       5.09022150       5.08884165       2.712E-04      1.08    <-- DIS
      56       5.08945358       5.08823542       2.394E-04      1.10    <-- DIS
      57       5.08877506       5.08769530       2.122E-04      1.12    <-- DIS
      58       5.08817316       5.08721252       1.888E-04      1.14    <-- DIS
      59       5.08763727       5.08677973       1.686E-04      1.16    <-- DIS
      60       5.08715859       5.08639074       1.510E-04      1.18    <-- DIS
      61       5.08672973       5.08604033       1.355E-04      1.20    <-- DIS
      62       5.08634449       5.08572403       1.220E-04      1.22    <-- DIS
      63       5.08599761       5.08543801       1.100E-04      1.24    <-- DIS
      64       5.08568463       5.08517897       9.944E-05      1.26    <-- DIS
      65       5.08540172       5.08494406       9.000E-05      1.28    <-- DIS
      66       5.08514558       5.08473076       8.158E-05      1.30    <-- DIS
      67       5.08491336       5.08453692       7.404E-05      1.32    <-- DIS
      68       5.08470258       5.08436058       6.726E-05      1.34    <-- DIS
      69       5.08451104       5.08420007       6.116E-05      1.36    <-- DIS
      70       5.08433685       5.08405386       5.566E-05      1.38    <-- DIS
      71       5.08417831       5.08392061       5.069E-05      1.40    <-- DIS
      72       5.08403392       5.08379912       4.619E-05      1.42    <-- DIS
      73       5.08390235       5.08368830       4.211E-05      1.44    <-- DIS
      74       5.08378239       5.08358718       3.840E-05      1.46    <-- DIS
      75       5.08367299       5.08349490       3.503E-05      1.48    <-- DIS
      76       5.08357317       5.08341066       3.197E-05      1.50    <-- DIS
      77       5.08348208       5.08333373       2.918E-05      1.52    <-- DIS
      78       5.08339893       5.08326349       2.664E-05      1.54    <-- DIS
      79       5.08332301       5.08319933       2.433E-05      1.56    <-- DIS
      80       5.08325368       5.08314073       2.222E-05      1.57    <-- DIS
      81       5.08319036       5.08308719       2.030E-05      1.59    <-- DIS
      82       5.08313252       5.08303828       1.854E-05      1.61    <-- DIS
      83       5.08307969       5.08299359       1.694E-05      1.63    <-- DIS
      84       5.08303142       5.08295275       1.548E-05      1.65    <-- DIS
      85       5.08298731       5.08291544       1.414E-05      1.67    <-- DIS
      86       5.08294702       5.08288134       1.292E-05      1.69    <-- DIS
      87       5.08291020       5.08285018       1.181E-05      1.71    <-- DIS
      88       5.08287655       5.08282170       1.079E-05      1.73    <-- DIS
      89       5.08284580       5.08279568       9.861E-06      1.75    <-- DIS
      90       5.08281769       5.08277189       9.013E-06      1.77    <-- DIS
      91       5.08279201       5.08275014       8.237E-06      1.79    <-- DIS
      92       5.08276853       5.08273026       7.529E-06      1.81    <-- DIS
      93       5.08274708       5.08271209       6.882E-06      1.83    <-- DIS
      94       5.08272746       5.08269548       6.291E-06      1.85    <-- DIS
      95       5.08270953       5.08268030       5.752E-06      1.87    <-- DIS
      96       5.08269314       5.08266641       5.258E-06      1.89    <-- DIS
      97       5.08267815       5.08265371       4.808E-06      1.91    <-- DIS
      98       5.08266445       5.08264210       4.396E-06      1.93    <-- DIS
      99       5.08265192       5.08263148       4.020E-06      1.95    <-- DIS
     100       5.08264046       5.08262177       3.676E-06      1.97    <-- DIS
     101       5.08262998       5.08261289       3.362E-06      1.98    <-- DIS
     102       5.08262040       5.08260476       3.075E-06      2.00    <-- DIS
     103       5.08261163       5.08259733       2.813E-06      2.02    <-- DIS
     104       5.08260361       5.08259053       2.574E-06      2.04    <-- DIS
     105       5.08259627       5.08258431       2.355E-06      2.06    <-- DIS
     106       5.08258956       5.08257861       2.155E-06      2.08    <-- DIS
     107       5.08258342       5.08257340       1.972E-06      2.10    <-- DIS
     108       5.08257780       5.08256862       1.805E-06      2.12    <-- DIS
     109       5.08257265       5.08256425       1.652E-06      2.14    <-- DIS
     110       5.08256794       5.08256025       1.513E-06      2.16    <-- DIS
     111       5.08256363       5.08255658       1.385E-06      2.18    <-- DIS
     112       5.08255968       5.08255323       1.269E-06      2.20    <-- DIS
     113       5.08255606       5.08255015       1.162E-06      2.22    <-- DIS
     114       5.08255274       5.08254733       1.065E-06      2.24    <-- DIS
     115       5.08254971       5.08254475       9.760E-07      2.26    <-- DIS
     116       5.08254692       5.08254238       8.947E-07      2.28    <-- DIS
     117       5.08254437       5.08254020       8.203E-07      2.30    <-- DIS
     118       5.08254203       5.08253821       7.520E-07      2.32    <-- DIS
     119       5.08253989       5.08253638       6.898E-07      2.33    <-- DIS
     120       5.08253792       5.08253470       6.330E-07      2.35    <-- DIS
     121       5.08253612       5.08253316       5.808E-07      2.37    <-- DIS
     122       5.08253446       5.08253175       5.332E-07      2.39    <-- DIS
     123       5.08253294       5.08253045       4.897E-07      2.41    <-- DIS
     124       5.08253154       5.08252925       4.499E-07      2.43    <-- DIS
     125       5.08253026       5.08252815       4.135E-07      2.45    <-- DIS
     126       5.08252908       5.08252714       3.802E-07      2.47    <-- DIS
     127       5.08252799       5.08252621       3.496E-07      2.49    <-- DIS
     128       5.08252699       5.08252536       3.217E-07      2.51    <-- DIS
     129       5.08252607       5.08252457       2.961E-07      2.53    <-- DIS
     130       5.08252523       5.08252384       2.727E-07      2.55    <-- DIS
     131       5.08252445       5.08252317       2.512E-07      2.57    <-- DIS
     132       5.08252373       5.08252256       2.316E-07      2.59    <-- DIS
     133       5.08252307       5.08252199       2.136E-07      2.61    <-- DIS
     134       5.08252246       5.08252146       1.971E-07      2.63    <-- DIS
     135       5.08252190       5.08252097       1.819E-07      2.65    <-- DIS
     136       5.08252138       5.08252052       1.680E-07      2.66    <-- DIS
     137       5.08252090       5.08252011       1.553E-07      2.68    <-- DIS
     138       5.08252046       5.08251973       1.436E-07      2.70    <-- DIS
     139       5.08252004       5.08251937       1.329E-07      2.72    <-- DIS
     140       5.08251966       5.08251904       1.231E-07      2.74    <-- DIS
     141       5.08251931       5.08251873       1.141E-07      2.76    <-- DIS
     142       5.08251899       5.08251845       1.058E-07      2.78    <-- DIS
     143       5.08251868       5.08251819       9.815E-08      2.80    <-- DIS
     144       5.08251840       5.08251794       9.114E-08      2.82    <-- DIS
     145       5.08251814       5.08251771       8.471E-08      2.84    <-- DIS
     146       5.08251790       5.08251750       7.879E-08      2.86    <-- DIS
     147       5.08251768       5.08251730       7.335E-08      2.88    <-- DIS
     148       5.08251747       5.08251712       6.833E-08      2.90    <-- DIS
     149       5.08251727       5.08251695       6.372E-08      2.92    <-- DIS
     150       5.08251709       5.08251678       5.947E-08      2.94    <-- DIS
     151       5.08251692       5.08251663       5.556E-08      2.96    <-- DIS
     152       5.08251676       5.08251649       5.195E-08      2.98    <-- DIS
     153       5.08251661       5.08251636       4.863E-08      2.99    <-- DIS
     154       5.08251647       5.08251624       4.555E-08      3.01    <-- DIS
     155       5.08251634       5.08251612       4.271E-08      3.03    <-- DIS
     156       5.08251622       5.08251601       4.009E-08      3.05    <-- DIS
     157       5.08251610       5.08251591       3.768E-08      3.07    <-- DIS
     158       5.08251599       5.08251581       3.545E-08      3.09    <-- DIS
     159       5.08251589       5.08251572       3.339E-08      3.11    <-- DIS
     160       5.08251580       5.08251564       3.149E-08      3.13    <-- DIS
     161       5.08251571       5.08251555       2.972E-08      3.15    <-- DIS
     162       5.08251562       5.08251548       2.809E-08      3.17    <-- DIS
     163       5.08251554       5.08251540       2.658E-08      3.19    <-- DIS
     164       5.08251546       5.08251534       2.517E-08      3.21    <-- DIS
     165       5.08251539       5.08251527       2.387E-08      3.23    <-- DIS
     166       5.08251532       5.08251521       2.267E-08      3.25    <-- DIS
     167       5.08251526       5.08251515       2.155E-08      3.27    <-- DIS
     168       5.08251520       5.08251509       2.051E-08      3.29    <-- DIS
     169       5.08251514       5.08251504       1.954E-08      3.30    <-- DIS
     170       5.08251508       5.08251499       1.865E-08      3.32    <-- DIS
     171       5.08251503       5.08251494       1.782E-08      3.34    <-- DIS
     172       5.08251498       5.08251489       1.704E-08      3.36    <-- DIS
     173       5.08251493       5.08251484       1.632E-08      3.38    <-- DIS
     174       5.08251488       5.08251480       1.565E-08      3.40    <-- DIS
     175       5.08251483       5.08251476       1.503E-08      3.42    <-- DIS
     176       5.08251479       5.08251472       1.445E-08      3.44    <-- DIS
     177       5.08251475       5.08251468       1.391E-08      3.46    <-- DIS
     178       5.08251471       5.08251464       1.341E-08      3.48    <-- DIS
     179       5.08251467       5.08251460       1.294E-08      3.50    <-- DIS
     180       5.08251463       5.08251457       1.250E-08      3.52    <-- DIS
     181       5.08251460       5.08251454       1.209E-08      3.54    <-- DIS
     182       5.08251456       5.08251450       1.171E-08      3.56    <-- DIS
     183       5.08251453       5.08251447       1.136E-08      3.58    <-- DIS
     184       5.08251450       5.08251444       1.103E-08      3.60    <-- DIS
     185       5.08251446       5.08251441       1.073E-08      3.61    <-- DIS
     186       5.08251443       5.08251438       1.045E-08      3.63    <-- DIS
     187       5.08251440       5.08251435       1.019E-08      3.65    <-- DIS
     188       5.08251437       5.08251432       9.954E-09      3.67    <-- DIS
     189       5.08251434       5.08251429       9.730E-09      3.69    <-- DIS
     190       5.08251432       5.08251427       9.526E-09      3.71    <-- DIS
     191       5.08251429       5.08251424       9.335E-09      3.73    <-- DIS
     192       5.08251426       5.08251421       9.163E-09      3.75    <-- DIS
     193       5.08251423       5.08251419       9.004E-09      3.77    <-- DIS
     194       5.08251421       5.08251416       8.860E-09      3.79    <-- DIS
     195       5.08251418       5.08251414       8.725E-09      3.81    <-- DIS
     196       5.08251416       5.08251411       8.606E-09      3.83    <-- DIS
     197       5.08251413       5.08251409       8.498E-09      3.85    <-- DIS
     198       5.08251411       5.08251406       8.402E-09      3.87    <-- DIS
     199       5.08251408       5.08251404       8.314E-09      3.89    <-- DIS
     200       5.08251406       5.08251402       8.241E-09      3.90    <-- DIS
     201       5.08251403       5.08251399       8.173E-09      3.92    <-- DIS
     202       5.08251401       5.08251397       8.118E-09      3.94    <-- DIS
     203       5.08251399       5.08251395       8.071E-09      3.96    <-- DIS
     204       5.08251396       5.08251392       8.032E-09      3.98    <-- DIS
     205       5.08251394       5.08251390       8.003E-09      4.00    <-- DIS
     206       5.08251392       5.08251388       7.979E-09      4.02    <-- DIS
     207       5.08251389       5.08251385       7.968E-09      4.04    <-- DIS
     208       5.08251387       5.08251383       7.958E-09      4.06    <-- DIS
     209       5.08251385       5.08251381       7.961E-09      4.08    <-- DIS
     210       5.08251382       5.08251378       7.970E-09      4.10    <-- DIS
     211       5.08251380       5.08251376       7.983E-09      4.12    <-- DIS
     212       5.08251378       5.08251374       8.009E-09      4.14    <-- DIS
     213       5.08251376       5.08251371       8.038E-09      4.16    <-- DIS
     214       5.08251373       5.08251369       8.075E-09      4.18    <-- DIS
     215       5.08251371       5.08251367       8.120E-09      4.20    <-- DIS
     216       5.08251368       5.08251364       8.171E-09      4.21    <-- DIS
     217       5.08251366       5.08251362       8.231E-09      4.23    <-- DIS
     218       5.08251364       5.08251359       8.297E-09      4.25    <-- DIS
     219       5.08251361       5.08251357       8.369E-09      4.27    <-- DIS
     220       5.08251359       5.08251354       8.449E-09      4.29    <-- DIS
     221       5.08251356       5.08251352       8.535E-09      4.31    <-- DIS
     222       5.08251354       5.08251349       8.627E-09      4.33    <-- DIS
     223       5.08251351       5.08251347       8.726E-09      4.35    <-- DIS
     224       5.08251349       5.08251344       8.832E-09      4.37    <-- DIS
     225       5.08251346       5.08251342       8.943E-09      4.39    <-- DIS
     226       5.08251344       5.08251339       9.062E-09      4.41    <-- DIS
     227       5.08251341       5.08251336       9.186E-09      4.43    <-- DIS
     228       5.08251338       5.08251334       9.317E-09      4.45    <-- DIS
     229       5.08251336       5.08251331       9.455E-09      4.47    <-- DIS
     230       5.08251333       5.08251328       9.599E-09      4.49    <-- DIS
     231       5.08251330       5.08251325       9.750E-09      4.51    <-- DIS
     232       5.08251327       5.08251322       9.907E-09      4.53    <-- DIS
     233       5.08251324       5.08251319       1.007E-08      4.55    <-- DIS
     234       5.08251321       5.08251316       1.024E-08      4.56    <-- DIS
     235       5.08251318       5.08251313       1.042E-08      4.58    <-- DIS
     236       5.08251315       5.08251310       1.061E-08      4.60    <-- DIS
     237       5.08251312       5.08251307       1.079E-08      4.62    <-- DIS
     238       5.08251309       5.08251303       1.099E-08      4.64    <-- DIS
     239       5.08251306       5.08251300       1.120E-08      4.66    <-- DIS
     240       5.08251303       5.08251297       1.141E-08      4.68    <-- DIS
     241       5.08251299       5.08251293       1.163E-08      4.70    <-- DIS
     242       5.08251296       5.08251290       1.186E-08      4.72    <-- DIS
     243       5.08251292       5.08251286       1.209E-08      4.74    <-- DIS
     244       5.08251289       5.08251282       1.234E-08      4.76    <-- DIS
     245       5.08251285       5.08251279       1.259E-08      4.78    <-- DIS
     246       5.08251281       5.08251275       1.285E-08      4.80    <-- DIS
     247       5.08251278       5.08251271       1.311E-08      4.82    <-- DIS
     248       5.08251274       5.08251267       1.339E-08      4.84    <-- DIS
     249       5.08251270       5.08251263       1.367E-08      4.85    <-- DIS
     250       5.08251266       5.08251259       1.396E-08      4.87    <-- DIS
     251       5.08251262       5.08251255       1.426E-08      4.89    <-- DIS
     252       5.08251258       5.08251250       1.457E-08      4.91    <-- DIS
     253       5.08251253       5.08251246       1.488E-08      4.93    <-- DIS
     254       5.08251249       5.08251241       1.521E-08      4.95    <-- DIS
     255       5.08251245       5.08251237       1.555E-08      4.97    <-- DIS
     256       5.08251240       5.08251232       1.590E-08      4.99    <-- DIS
     257       5.08251235       5.08251227       1.625E-08      5.01    <-- DIS
     258       5.08251231       5.08251222       1.662E-08      5.03    <-- DIS
     259       5.08251226       5.08251217       1.699E-08      5.05    <-- DIS
     260       5.08251221       5.08251212       1.738E-08      5.07    <-- DIS
     261       5.08251216       5.08251207       1.777E-08      5.09    <-- DIS
     262       5.08251211       5.08251201       1.818E-08      5.11    <-- DIS
     263       5.08251205       5.08251196       1.859E-08      5.13    <-- DIS
     264       5.08251200       5.08251190       1.902E-08      5.14    <-- DIS
     265       5.08251194       5.08251184       1.946E-08      5.16    <-- DIS
     266       5.08251189       5.08251178       1.992E-08      5.18    <-- DIS
     267       5.08251183       5.08251172       2.038E-08      5.20    <-- DIS
     268       5.08251177       5.08251166       2.086E-08      5.22    <-- DIS
     269       5.08251171       5.08251160       2.135E-08      5.24    <-- DIS
     270       5.08251164       5.08251153       2.185E-08      5.26    <-- DIS
     271       5.08251158       5.08251147       2.236E-08      5.28    <-- DIS
     272       5.08251152       5.08251140       2.289E-08      5.30    <-- DIS
     273       5.08251145       5.08251133       2.343E-08      5.32    <-- DIS
     274       5.08251138       5.08251126       2.399E-08      5.34    <-- DIS
     275       5.08251131       5.08251119       2.456E-08      5.36    <-- DIS
     276       5.08251124       5.08251111       2.515E-08      5.38    <-- DIS
     277       5.08251116       5.08251103       2.574E-08      5.40    <-- DIS
     278       5.08251109       5.08251096       2.636E-08      5.42    <-- DIS
     279       5.08251101       5.08251088       2.699E-08      5.43    <-- DIS
     280       5.08251093       5.08251079       2.764E-08      5.45    <-- DIS
     281       5.08251085       5.08251071       2.830E-08      5.47    <-- DIS
     282       5.08251077       5.08251062       2.898E-08      5.49    <-- DIS
     283       5.08251069       5.08251053       2.968E-08      5.51    <-- DIS
     284       5.08251060       5.08251044       3.039E-08      5.53    <-- DIS
     285       5.08251051       5.08251035       3.112E-08      5.55    <-- DIS
     286       5.08251042       5.08251026       3.188E-08      5.57    <-- DIS
     287       5.08251033       5.08251016       3.265E-08      5.59    <-- DIS
     288       5.08251023       5.08251006       3.344E-08      5.61    <-- DIS
     289       5.08251013       5.08250996       3.425E-08      5.63    <-- DIS
     290       5.08251003       5.08250985       3.508E-08      5.65    <-- DIS
     291       5.08250993       5.08250975       3.592E-08      5.67    <-- DIS
     292       5.08250982       5.08250964       3.680E-08      5.69    <-- DIS
     293       5.08250972       5.08250953       3.769E-08      5.71    <-- DIS
     294       5.08250961       5.08250941       3.861E-08      5.72    <-- DIS
     295       5.08250949       5.08250929       3.954E-08      5.74    <-- DIS
     296       5.08250938       5.08250917       4.051E-08      5.76    <-- DIS
     297       5.08250926       5.08250905       4.149E-08      5.78    <-- DIS
     298       5.08250914       5.08250892       4.250E-08      5.80    <-- DIS
     299       5.08250901       5.08250879       4.354E-08      5.82    <-- DIS
     300       5.08250889       5.08250866       4.460E-08      5.84    <-- DIS
     301       5.08250876       5.08250852       4.568E-08      5.86    <-- DIS
     302       5.08250862       5.08250838       4.680E-08      5.88    <-- DIS
     303       5.08250849       5.08250824       4.794E-08      5.90    <-- DIS
     304       5.08250835       5.08250810       4.911E-08      5.92    <-- DIS
     305       5.08250820       5.08250795       5.031E-08      5.94    <-- DIS
     306       5.08250806       5.08250779       5.154E-08      5.96    <-- DIS
     307       5.08250790       5.08250764       5.280E-08      5.98    <-- DIS
     308       5.08250775       5.08250748       5.409E-08      6.00    <-- DIS
     309       5.08250759       5.08250731       5.541E-08      6.01    <-- DIS
     310       5.08250743       5.08250714       5.677E-08      6.03    <-- DIS
     311       5.08250726       5.08250697       5.816E-08      6.05    <-- DIS
     312       5.08250709       5.08250679       5.958E-08      6.07    <-- DIS
     313       5.08250692       5.08250661       6.104E-08      6.09    <-- DIS
     314       5.08250674       5.08250642       6.254E-08      6.11    <-- DIS
     315       5.08250656       5.08250623       6.407E-08      6.13    <-- DIS
     316       5.08250637       5.08250604       6.564E-08      6.15    <-- DIS
     317       5.08250618       5.08250584       6.725E-08      6.17    <-- DIS
     318       5.08250598       5.08250563       6.889E-08      6.19    <-- DIS
     319       5.08250578       5.08250542       7.058E-08      6.21    <-- DIS
     320       5.08250558       5.08250521       7.231E-08      6.23    <-- DIS
     321       5.08250536       5.08250499       7.408E-08      6.25    <-- DIS
     322       5.08250515       5.08250476       7.590E-08      6.27    <-- DIS
     323       5.08250493       5.08250453       7.776E-08      6.29    <-- DIS
     324       5.08250470       5.08250429       7.966E-08      6.31    <-- DIS
     325       5.08250447       5.08250405       8.161E-08      6.32    <-- DIS
     326       5.08250423       5.08250380       8.361E-08      6.34    <-- DIS
     327       5.08250398       5.08250355       8.566E-08      6.36    <-- DIS
     328       5.08250373       5.08250329       8.776E-08      6.38    <-- DIS
     329       5.08250348       5.08250302       8.992E-08      6.40    <-- DIS
     330       5.08250321       5.08250274       9.212E-08      6.42    <-- DIS
     331       5.08250294       5.08250246       9.438E-08      6.44    <-- DIS
     332       5.08250267       5.08250218       9.669E-08      6.46    <-- DIS
     333       5.08250238       5.08250188       9.908E-08      6.48    <-- DIS
     334       5.08250210       5.08250158       1.015E-07      6.50    <-- DIS
     335       5.08250180       5.08250127       1.040E-07      6.52    <-- DIS
     336       5.08250149       5.08250095       1.066E-07      6.54    <-- DIS
     337       5.08250118       5.08250063       1.092E-07      6.56    <-- DIS
     338       5.08250086       5.08250030       1.119E-07      6.58    <-- DIS
     339       5.08250054       5.08249995       1.146E-07      6.60    <-- DIS
     340       5.08250020       5.08249960       1.174E-07      6.62    <-- DIS
     341       5.08249986       5.08249925       1.203E-07      6.64    <-- DIS
     342       5.08249951       5.08249888       1.233E-07      6.65    <-- DIS
     343       5.08249915       5.08249850       1.263E-07      6.67    <-- DIS
     344       5.08249878       5.08249812       1.294E-07      6.69    <-- DIS
     345       5.08249840       5.08249773       1.326E-07      6.71    <-- DIS
     346       5.08249801       5.08249732       1.359E-07      6.73    <-- DIS
     347       5.08249761       5.08249691       1.392E-07      6.75    <-- DIS
     348       5.08249721       5.08249648       1.427E-07      6.77    <-- DIS
     349       5.08249679       5.08249605       1.462E-07      6.79    <-- DIS
     350       5.08249636       5.08249560       1.498E-07      6.81    <-- DIS
     351       5.08249593       5.08249515       1.534E-07      6.83    <-- DIS
     352       5.08249548       5.08249468       1.572E-07      6.85    <-- DIS
     353       5.08249502       5.08249420       1.611E-07      6.87    <-- DIS
     354       5.08249455       5.08249371       1.650E-07      6.89    <-- DIS
     355       5.08249407       5.08249321       1.691E-07      6.91    <-- DIS
     356       5.08249357       5.08249269       1.733E-07      6.93    <-- DIS
     357       5.08249307       5.08249216       1.776E-07      6.95    <-- DIS
     358       5.08249255       5.08249162       1.819E-07      6.97    <-- DIS
     359       5.08249202       5.08249107       1.864E-07      6.99    <-- DIS
     360       5.08249147       5.08249050       1.909E-07      7.01    <-- DIS
     361       5.08249091       5.08248992       1.956E-07      7.03    <-- DIS
     362       5.08249034       5.08248932       2.004E-07      7.04    <-- DIS
     363       5.08248976       5.08248871       2.054E-07      7.06    <-- DIS
     364       5.08248916       5.08248809       2.104E-07      7.08    <-- DIS
     365       5.08248854       5.08248745       2.155E-07      7.10    <-- DIS
     366       5.08248791       5.08248679       2.208E-07      7.12    <-- DIS
     367       5.08248727       5.08248612       2.262E-07      7.14    <-- DIS
     368       5.08248661       5.08248543       2.318E-07      7.16    <-- DIS
     369       5.08248593       5.08248472       2.374E-07      7.18    <-- DIS
     370       5.08248524       5.08248400       2.433E-07      7.20    <-- DIS
     371       5.08248453       5.08248326       2.492E-07      7.22    <-- DIS
     372       5.08248380       5.08248250       2.553E-07      7.24    <-- DIS
     373       5.08248305       5.08248172       2.616E-07      7.26    <-- DIS
     374       5.08248229       5.08248093       2.680E-07      7.28    <-- DIS
     375       5.08248151       5.08248011       2.745E-07      7.30    <-- DIS
     376       5.08248070       5.08247927       2.812E-07      7.32    <-- DIS
     377       5.08247988       5.08247842       2.881E-07      7.34    <-- DIS
     378       5.08247904       5.08247754       2.951E-07      7.36    <-- DIS
     379       5.08247818       5.08247664       3.024E-07      7.38    <-- DIS
     380       5.08247730       5.08247572       3.097E-07      7.39    <-- DIS
     381       5.08247639       5.08247478       3.173E-07      7.41    <-- DIS
     382       5.08247546       5.08247381       3.250E-07      7.43    <-- DIS
     383       5.08247452       5.08247282       3.330E-07      7.45    <-- DIS
     384       5.08247354       5.08247181       3.411E-07      7.47    <-- DIS
     385       5.08247255       5.08247077       3.494E-07      7.49    <-- DIS
     386       5.08247153       5.08246971       3.579E-07      7.51    <-- DIS
     387       5.08247048       5.08246862       3.667E-07      7.53    <-- DIS
     388       5.08246941       5.08246750       3.756E-07      7.55    <-- DIS
     389       5.08246831       5.08246636       3.848E-07      7.57    <-- DIS
     390       5.08246719       5.08246519       3.942E-07      7.59    <-- DIS
     391       5.08246604       5.08246399       4.038E-07      7.61    <-- DIS
     392       5.08246486       5.08246276       4.136E-07      7.63    <-- DIS
     393       5.08246365       5.08246150       4.237E-07      7.65    <-- DIS
     394       5.08246241       5.08246021       4.340E-07      7.67    <-- DIS
     395       5.08246115       5.08245889       4.446E-07      7.69    <-- DIS
     396       5.08245985       5.08245753       4.554E-07      7.71    <-- DIS
     397       5.08245852       5.08245615       4.664E-07      7.73    <-- DIS
     398       5.08245716       5.08245473       4.778E-07      7.75    <-- DIS
     399       5.08245576       5.08245327       4.894E-07      7.76    <-- DIS
     400       5.08245433       5.08245178       5.012E-07      7.78    <-- DIS
     401       5.08245287       5.08245026       5.134E-07      7.80    <-- DIS
     402       5.08245137       5.08244870       5.259E-07      7.82    <-- DIS
     403       5.08244983       5.08244709       5.386E-07      7.84    <-- DIS
     404       5.08244826       5.08244546       5.516E-07      7.86    <-- DIS
     405       5.08244665       5.08244378       5.650E-07      7.88    <-- DIS
     406       5.08244500       5.08244206       5.787E-07      7.90    <-- DIS
     407       5.08244331       5.08244030       5.927E-07      7.92    <-- DIS
     408       5.08244158       5.08243849       6.070E-07      7.94    <-- DIS
     409       5.08243981       5.08243665       6.217E-07      7.96    <-- DIS
     410       5.08243799       5.08243475       6.367E-07      7.98    <-- DIS
     411       5.08243613       5.08243282       6.521E-07      8.00    <-- DIS
     412       5.08243423       5.08243083       6.678E-07      8.02    <-- DIS
     413       5.08243228       5.08242880       6.839E-07      8.04    <-- DIS
     414       5.08243028       5.08242672       7.004E-07      8.06    <-- DIS
     415       5.08242823       5.08242459       7.172E-07      8.08    <-- DIS
     416       5.08242614       5.08242241       7.345E-07      8.10    <-- DIS
     417       5.08242399       5.08242017       7.522E-07      8.12    <-- DIS
     418       5.08242180       5.08241788       7.702E-07      8.14    <-- DIS
     419       5.08241955       5.08241554       7.887E-07      8.15    <-- DIS
     420       5.08241725       5.08241314       8.077E-07      8.17    <-- DIS
     421       5.08241489       5.08241068       8.270E-07      8.19    <-- DIS
     422       5.08241247       5.08240817       8.469E-07      8.21    <-- DIS
     423       5.08241000       5.08240559       8.672E-07      8.23    <-- DIS
     424       5.08240747       5.08240295       8.879E-07      8.25    <-- DIS
     425       5.08240487       5.08240025       9.092E-07      8.27    <-- DIS
     426       5.08240222       5.08239749       9.309E-07      8.29    <-- DIS
     427       5.08239950       5.08239466       9.532E-07      8.31    <-- DIS
     428       5.08239672       5.08239176       9.759E-07      8.33    <-- DIS
     429       5.08239387       5.08238879       9.992E-07      8.35    <-- DIS
     430       5.08239095       5.08238575       1.023E-06      8.37    <-- DIS
     431       5.08238796       5.08238264       1.047E-06      8.39    <-- DIS
     432       5.08238491       5.08237945       1.072E-06      8.41    <-- DIS
     433       5.08238177       5.08237619       1.098E-06      8.43    <-- DIS
     434       5.08237857       5.08237286       1.124E-06      8.45    <-- DIS
     435       5.08237529       5.08236944       1.151E-06      8.47    <-- DIS
     436       5.08237193       5.08236594       1.178E-06      8.49    <-- DIS
     437       5.08236849       5.08236236       1.206E-06      8.51    <-- DIS
     438       5.08236497       5.08235869       1.234E-06      8.53    <-- DIS
     439       5.08236136       5.08235494       1.264E-06      8.54    <-- DIS
     440       5.08235767       5.08235110       1.293E-06      8.56    <-- DIS
     441       5.08235390       5.08234717       1.324E-06      8.58    <-- DIS
     442       5.08235003       5.08234315       1.355E-06      8.60    <-- DIS
     443       5.08234608       5.08233903       1.387E-06      8.62    <-- DIS
     444       5.08234203       5.08233481       1.419E-06      8.64    <-- DIS
     445       5.08233788       5.08233050       1.453E-06      8.66    <-- DIS
     446       5.08233364       5.08232609       1.487E-06      8.68    <-- DIS
     447       5.08232930       5.08232157       1.521E-06      8.70    <-- DIS
     448       5.08232486       5.08231695       1.557E-06      8.72    <-- DIS
     449       5.08232032       5.08231222       1.593E-06      8.74    <-- DIS
     450       5.08231566       5.08230738       1.630E-06      8.76    <-- DIS
     451       5.08231090       5.08230243       1.668E-06      8.78    <-- DIS
     452       5.08230603       5.08229736       1.707E-06      8.80    <-- DIS
     453       5.08230105       5.08229217       1.747E-06      8.82    <-- DIS
     454       5.08229595       5.08228687       1.787E-06      8.84    <-- DIS
     455       5.08229074       5.08228144       1.828E-06      8.86    <-- DIS
     456       5.08228540       5.08227589       1.870E-06      8.88    <-- DIS
     457       5.08227994       5.08227022       1.913E-06      8.90    <-- DIS
     458       5.08227435       5.08226441       1.957E-06      8.92    <-- DIS
     459       5.08226864       5.08225846       2.002E-06      8.94    <-- DIS
     460       5.08226280       5.08225239       2.048E-06      8.95    <-- DIS
     461       5.08225682       5.08224617       2.095E-06      8.97    <-- DIS
     462       5.08225070       5.08223981       2.143E-06      8.99    <-- DIS
     463       5.08224445       5.08223331       2.192E-06      9.01    <-- DIS
     464       5.08223805       5.08222666       2.241E-06      9.03    <-- DIS
     465       5.08223151       5.08221986       2.292E-06      9.05    <-- DIS
     466       5.08222482       5.08221291       2.344E-06      9.07    <-- DIS
     467       5.08221798       5.08220580       2.397E-06      9.09    <-- DIS
     468       5.08221098       5.08219853       2.451E-06      9.11    <-- DIS
     469       5.08220383       5.08219109       2.506E-06      9.13    <-- DIS
     470       5.08219651       5.08218349       2.562E-06      9.15    <-- DIS
     471       5.08218904       5.08217572       2.620E-06      9.17    <-- DIS
     472       5.08218139       5.08216778       2.678E-06      9.19    <-- DIS
     473       5.08217357       5.08215966       2.738E-06      9.21    <-- DIS
     474       5.08216558       5.08215136       2.799E-06      9.23    <-- DIS
     475       5.08215742       5.08214288       2.861E-06      9.25    <-- DIS
     476       5.08214907       5.08213421       2.924E-06      9.27    <-- DIS
     477       5.08214054       5.08212535       2.988E-06      9.29    <-- DIS
     478       5.08213182       5.08211630       3.054E-06      9.31    <-- DIS
     479       5.08212290       5.08210704       3.121E-06      9.33    <-- DIS
     480       5.08211380       5.08209759       3.189E-06      9.35    <-- DIS
     481       5.08210449       5.08208793       3.258E-06      9.37    <-- DIS
     482       5.08209499       5.08207807       3.329E-06      9.38    <-- DIS
     483       5.08208527       5.08206799       3.401E-06      9.40    <-- DIS
     484       5.08207535       5.08205770       3.474E-06      9.42    <-- DIS
     485       5.08206521       5.08204718       3.549E-06      9.44    <-- DIS
     486       5.08205486       5.08203644       3.625E-06      9.46    <-- DIS
     487       5.08204429       5.08202547       3.702E-06      9.48    <-- DIS
     488       5.08203349       5.08201428       3.780E-06      9.50    <-- DIS
     489       5.08202246       5.08200284       3.860E-06      9.52    <-- DIS
     490       5.08201120       5.08199117       3.941E-06      9.54    <-- DIS
     491       5.08199970       5.08197925       4.024E-06      9.56    <-- DIS
     492       5.08198796       5.08196708       4.108E-06      9.58    <-- DIS
     493       5.08197597       5.08195466       4.194E-06      9.60    <-- DIS
     494       5.08196374       5.08194199       4.280E-06      9.62    <-- DIS
     495       5.08195126       5.08192905       4.369E-06      9.64    <-- DIS
     496       5.08193851       5.08191586       4.458E-06      9.66    <-- DIS
     497       5.08192551       5.08190239       4.549E-06      9.68    <-- DIS
     498       5.08191224       5.08188865       4.642E-06      9.70    <-- DIS
     499       5.08189870       5.08187463       4.736E-06      9.72    <-- DIS
     500       5.08188489       5.08186034       4.831E-06      9.74    <-- DIS
     501       5.08187080       5.08184575       4.928E-06      9.76    <-- DIS
     502       5.08185642       5.08183088       5.026E-06      9.78    <-- DIS
     503       5.08184177       5.08181572       5.125E-06      9.80    <-- DIS
     504       5.08182682       5.08180026       5.226E-06      9.82    <-- DIS
     505       5.08181158       5.08178450       5.329E-06      9.84    <-- DIS
     506       5.08179604       5.08176843       5.432E-06      9.85    <-- DIS
     507       5.08178020       5.08175206       5.537E-06      9.87    <-- DIS
     508       5.08176405       5.08173537       5.644E-06      9.89    <-- DIS
     509       5.08174759       5.08171836       5.752E-06      9.91    <-- DIS
     510       5.08173082       5.08170104       5.861E-06      9.93    <-- DIS
     511       5.08171373       5.08168339       5.971E-06      9.95    <-- DIS
     512       5.08169632       5.08166541       6.083E-06      9.97    <-- DIS
     513       5.08167859       5.08164710       6.196E-06      9.99    <-- DIS
     514       5.08166053       5.08162846       6.310E-06     10.01    <-- DIS
     515       5.08164213       5.08160948       6.425E-06     10.03    <-- DIS
     516       5.08162340       5.08159016       6.542E-06     10.05    <-- DIS
     517       5.08160433       5.08157049       6.660E-06     10.07    <-- DIS
     518       5.08158492       5.08155047       6.778E-06     10.09    <-- DIS
     519       5.08156516       5.08153010       6.898E-06     10.11    <-- DIS
     520       5.08154505       5.08150938       7.020E-06     10.13    <-- DIS
     521       5.08152459       5.08148830       7.142E-06     10.15    <-- DIS
     522       5.08150377       5.08146686       7.265E-06     10.17    <-- DIS
     523       5.08148260       5.08144505       7.389E-06     10.19    <-- DIS
     524       5.08146106       5.08142289       7.514E-06     10.21    <-- DIS
     525       5.08143917       5.08140035       7.639E-06     10.23    <-- DIS
     526       5.08141691       5.08137744       7.766E-06     10.25    <-- DIS
     527       5.08139427       5.08135417       7.893E-06     10.27    <-- DIS
     528       5.08137127       5.08133052       8.021E-06     10.29    <-- DIS
     529       5.08134790       5.08130649       8.150E-06     10.31    <-- DIS
     530       5.08132416       5.08128209       8.279E-06     10.33    <-- DIS
     531       5.08130004       5.08125731       8.409E-06     10.35    <-- DIS
     532       5.08127554       5.08123215       8.539E-06     10.36    <-- DIS
     533       5.08125066       5.08120661       8.669E-06     10.38    <-- DIS
     534       5.08122541       5.08118070       8.800E-06     10.40    <-- DIS
     535       5.08119977       5.08115440       8.930E-06     10.42    <-- DIS
     536       5.08117376       5.08112772       9.061E-06     10.44    <-- DIS
     537       5.08114737       5.08110066       9.192E-06     10.46    <-- DIS
     538       5.08112059       5.08107322       9.323E-06     10.48    <-- DIS
     539       5.08109344       5.08104540       9.454E-06     10.50    <-- DIS
     540       5.08106591       5.08101721       9.585E-06     10.52    <-- DIS
     541       5.08103799       5.08098863       9.715E-06     10.54    <-- DIS
     542       5.08100970       5.08095968       9.845E-06     10.56    <-- DIS
     543       5.08098104       5.08093036       9.974E-06     10.58    <-- DIS
     544       5.08095200       5.08090067       1.010E-05     10.60    <-- DIS
     545       5.08092258       5.08087060       1.023E-05     10.62    <-- DIS
     546       5.08089280       5.08084017       1.036E-05     10.64    <-- DIS
     547       5.08086264       5.08080938       1.048E-05     10.66    <-- DIS
     548       5.08083212       5.08077822       1.061E-05     10.68    <-- DIS
     549       5.08080124       5.08074671       1.073E-05     10.70    <-- DIS
     550       5.08077000       5.08071485       1.086E-05     10.72    <-- DIS
     551       5.08073841       5.08068264       1.098E-05     10.74    <-- DIS
     552       5.08070646       5.08065008       1.110E-05     10.76    <-- DIS
     553       5.08067417       5.08061719       1.121E-05     10.78    <-- DIS
     554       5.08064154       5.08058397       1.133E-05     10.80    <-- DIS
     555       5.08060857       5.08055042       1.145E-05     10.82    <-- DIS
     556       5.08057527       5.08051655       1.156E-05     10.84    <-- DIS
     557       5.08054164       5.08048236       1.167E-05     10.86    <-- DIS
     558       5.08050770       5.08044787       1.178E-05     10.87    <-- DIS
     559       5.08047344       5.08041308       1.188E-05     10.89    <-- DIS
     560       5.08043888       5.08037800       1.198E-05     10.91    <-- DIS
     561       5.08040403       5.08034263       1.208E-05     10.93    <-- DIS
     562       5.08036888       5.08030699       1.218E-05     10.95    <-- DIS
     563       5.08033345       5.08027108       1.228E-05     10.97    <-- DIS
     564       5.08029775       5.08023492       1.237E-05     10.99    <-- DIS
     565       5.08026179       5.08019850       1.246E-05     11.01    <-- DIS
     566       5.08022557       5.08016185       1.254E-05     11.03    <-- DIS
     567       5.08018911       5.08012497       1.262E-05     11.05    <-- DIS
     568       5.08015241       5.08008788       1.270E-05     11.07    <-- DIS
     569       5.08011548       5.08005057       1.278E-05     11.09    <-- DIS
     570       5.08007835       5.08001308       1.285E-05     11.11    <-- DIS
     571       5.08004100       5.07997539       1.292E-05     11.13    <-- DIS
     572       5.08000347       5.07993754       1.298E-05     11.15    <-- DIS
     573       5.07996576       5.07989952       1.304E-05     11.17    <-- DIS
     574       5.07992787       5.07986136       1.309E-05     11.19    <-- DIS
     575       5.07988983       5.07982307       1.314E-05     11.21    <-- DIS
     576       5.07985165       5.07978465       1.319E-05     11.23    <-- DIS
     577       5.07981333       5.07974612       1.323E-05     11.25    <-- DIS
     578       5.07977490       5.07970749       1.327E-05     11.27    <-- DIS
     579       5.07973636       5.07966879       1.330E-05     11.29    <-- DIS
     580       5.07969773       5.07963001       1.333E-05     11.31    <-- DIS
     581       5.07965901       5.07959118       1.335E-05     11.33    <-- DIS
     582       5.07962024       5.07955231       1.337E-05     11.35    <-- DIS
     583       5.07958141       5.07951342       1.339E-05     11.37    <-- DIS
     584       5.07954255       5.07947451       1.339E-05     11.38    <-- DIS
     585       5.07950367       5.07943561       1.340E-05     11.40    <-- DIS
     586       5.07946477       5.07939672       1.340E-05     11.42    <-- DIS
     587       5.07942588       5.07935786       1.339E-05     11.44    <-- DIS
     588       5.07938702       5.07931905       1.338E-05     11.46    <-- DIS
     589       5.07934819       5.07928031       1.336E-05     11.48    <-- DIS
     590       5.07930941       5.07924163       1.334E-05     11.50    <-- DIS
     591       5.07927069       5.07920305       1.332E-05     11.52    <-- DIS
     592       5.07923206       5.07916458       1.329E-05     11.54    <-- DIS
     593       5.07919352       5.07912622       1.325E-05     11.56    <-- DIS
     594       5.07915508       5.07908800       1.321E-05     11.58    <-- DIS
     595       5.07911677       5.07904993       1.316E-05     11.60    <-- DIS
     596       5.07907860       5.07901202       1.311E-05     11.62    <-- DIS
     597       5.07904058       5.07897428       1.305E-05     11.64    <-- DIS
     598       5.07900273       5.07893674       1.299E-05     11.66    <-- DIS
     599       5.07896506       5.07889940       1.293E-05     11.68    <-- DIS
     600       5.07892758       5.07886228       1.286E-05     11.70    <-- DIS
     601       5.07889031       5.07882540       1.278E-05     11.72    <-- DIS
     602       5.07885327       5.07878876       1.270E-05     11.74    <-- DIS
     603       5.07881645       5.07875237       1.262E-05     11.76    <-- DIS
     604       5.07877989       5.07871626       1.253E-05     11.78    <-- DIS
     605       5.07874358       5.07868043       1.243E-05     11.80    <-- DIS
     606       5.07870755       5.07864490       1.234E-05     11.82    <-- DIS
     607       5.07867181       5.07860967       1.224E-05     11.84    <-- DIS
     608       5.07863636       5.07857476       1.213E-05     11.86    <-- DIS
     609       5.07860122       5.07854018       1.202E-05     11.88    <-- DIS
     610       5.07856641       5.07850593       1.191E-05     11.90    <-- DIS
     611       5.07853192       5.07847204       1.179E-05     11.91    <-- DIS
     612       5.07849778       5.07843851       1.167E-05     11.93    <-- DIS
     613       5.07846398       5.07840534       1.155E-05     11.95    <-- DIS
     614       5.07843055       5.07837256       1.142E-05     11.97    <-- DIS
     615       5.07839749       5.07834016       1.129E-05     11.99    <-- DIS
     616       5.07836481       5.07830815       1.116E-05     12.01    <-- DIS
     617       5.07833252       5.07827655       1.102E-05     12.03    <-- DIS
     618       5.07830062       5.07824536       1.088E-05     12.05    <-- DIS
     619       5.07826913       5.07821458       1.074E-05     12.07    <-- DIS
     620       5.07823804       5.07818423       1.060E-05     12.09    <-- DIS
     621       5.07820738       5.07815430       1.045E-05     12.11    <-- DIS
     622       5.07817714       5.07812481       1.030E-05     12.13    <-- DIS
     623       5.07814733       5.07809576       1.016E-05     12.15    <-- DIS
     624       5.07811795       5.07806715       1.000E-05     12.17    <-- DIS
     625       5.07808901       5.07803899       9.851E-06     12.19    <-- DIS
     626       5.07806052       5.07801128       9.697E-06     12.21    <-- DIS
     627       5.07803248       5.07798402       9.542E-06     12.23    <-- DIS
     628       5.07800488       5.07795722       9.386E-06     12.25    <-- DIS
     629       5.07797774       5.07793088       9.228E-06     12.27    <-- DIS
     630       5.07795106       5.07790501       9.070E-06     12.29    <-- DIS
     631       5.07792484       5.07787959       8.912E-06     12.31    <-- DIS
     632       5.07789908       5.07785464       8.752E-06     12.33    <-- DIS
     633       5.07787378       5.07783015       8.593E-06     12.35    <-- DIS
     634       5.07784895       5.07780612       8.433E-06     12.37    <-- DIS
     635       5.07782457       5.07778256       8.273E-06     12.39    <-- DIS
     636       5.07780067       5.07775947       8.114E-06     12.41    <-- DIS
     637       5.07777722       5.07773683       7.954E-06     12.43    <-- DIS
     638       5.07775424       5.07771466       7.795E-06     12.45    <-- DIS
     639       5.07773172       5.07769294       7.637E-06     12.47    <-- DIS
     640       5.07770966       5.07767168       7.479E-06     12.49    <-- DIS
     641       5.07768805       5.07765088       7.321E-06     12.50    <-- DIS
     642       5.07766690       5.07763052       7.165E-06     12.52    <-- DIS
     643       5.07764621       5.07761062       7.009E-06     12.54    <-- DIS
     644       5.07762597       5.07759116       6.855E-06     12.56    <-- DIS
     645       5.07760617       5.07757215       6.701E-06     12.58    <-- DIS
     646       5.07758682       5.07755357       6.549E-06     12.60    <-- DIS
     647       5.07756791       5.07753542       6.399E-06     12.62    <-- DIS
     648       5.07754944       5.07751771       6.249E-06     12.64    <-- DIS
     649       5.07753140       5.07750041       6.102E-06     12.66    <-- DIS
     650       5.07751378       5.07748354       5.955E-06     12.68    <-- DIS
     651       5.07749659       5.07746709       5.811E-06     12.70    <-- DIS
     652       5.07747982       5.07745104       5.668E-06     12.72    <-- DIS
     653       5.07746346       5.07743540       5.527E-06     12.74    <-- DIS
     654       5.07744751       5.07742015       5.388E-06     12.76    <-- DIS
     655       5.07743196       5.07740530       5.251E-06     12.78    <-- DIS
     656       5.07741681       5.07739083       5.116E-06     12.80    <-- DIS
     657       5.07740205       5.07737675       4.982E-06     12.82    <-- DIS
     658       5.07738767       5.07736304       4.851E-06     12.84    <-- DIS
     659       5.07737368       5.07734970       4.722E-06     12.86    <-- DIS
     660       5.07736005       5.07733672       4.595E-06     12.88    <-- DIS
     661       5.07734680       5.07732410       4.470E-06     12.90    <-- DIS
     662       5.07733390       5.07731183       4.348E-06     12.92    <-- DIS
     663       5.07732136       5.07729990       4.227E-06     12.94    <-- DIS
     664       5.07730917       5.07728831       4.109E-06     12.96    <-- DIS
     665       5.07729732       5.07727705       3.993E-06     12.98    <-- DIS
     666       5.07728581       5.07726611       3.879E-06     12.99    <-- DIS
     667       5.07727462       5.07725549       3.768E-06     13.01    <-- DIS
     668       5.07726375       5.07724518       3.659E-06     13.03    <-- DIS
     669       5.07725320       5.07723517       3.552E-06     13.05    <-- DIS
     670       5.07724296       5.07722546       3.447E-06     13.07    <-- DIS
     671       5.07723303       5.07721604       3.345E-06     13.09    <-- DIS
     672       5.07722338       5.07720691       3.245E-06     13.11    <-- DIS
     673       5.07721403       5.07719805       3.147E-06     13.13    <-- DIS
     674       5.07720496       5.07718947       3.051E-06     13.15    <-- DIS
     675       5.07719616       5.07718115       2.958E-06     13.17    <-- DIS
     676       5.07718764       5.07717309       2.866E-06     13.19    <-- DIS
     677       5.07717938       5.07716528       2.777E-06     13.21    <-- DIS
     678       5.07717137       5.07715771       2.691E-06     13.23    <-- DIS
     679       5.07716362       5.07715039       2.606E-06     13.25    <-- DIS
     680       5.07715611       5.07714330       2.523E-06     13.27    <-- DIS
     681       5.07714884       5.07713644       2.443E-06     13.29    <-- DIS
     682       5.07714180       5.07712980       2.364E-06     13.31    <-- DIS
     683       5.07713499       5.07712337       2.288E-06     13.33    <-- DIS
     684       5.07712840       5.07711716       2.213E-06     13.35    <-- DIS
     685       5.07712202       5.07711115       2.141E-06     13.37    <-- DIS
     686       5.07711585       5.07710534       2.071E-06     13.39    <-- DIS
     687       5.07710989       5.07709972       2.002E-06     13.41    <-- DIS
     688       5.07710412       5.07709429       1.936E-06     13.43    <-- DIS
     689       5.07709854       5.07708904       1.871E-06     13.44    <-- DIS
     690       5.07709315       5.07708397       1.808E-06     13.46    <-- DIS
     691       5.07708795       5.07707908       1.747E-06     13.48    <-- DIS
     692       5.07708291       5.07707435       1.687E-06     13.50    <-- DIS
     693       5.07707805       5.07706978       1.630E-06     13.52    <-- DIS
     694       5.07707336       5.07706537       1.574E-06     13.54    <-- DIS
     695       5.07706883       5.07706111       1.520E-06     13.56    <-- DIS
     696       5.07706445       5.07705700       1.467E-06     13.58    <-- DIS
     697       5.07706023       5.07705304       1.416E-06     13.60    <-- DIS
     698       5.07705615       5.07704921       1.367E-06     13.62    <-- DIS
     699       5.07705221       5.07704552       1.319E-06     13.64    <-- DIS
     700       5.07704841       5.07704195       1.272E-06     13.66    <-- DIS
     701       5.07704475       5.07703852       1.227E-06     13.68    <-- DIS
     702       5.07704122       5.07703521       1.184E-06     13.70    <-- DIS
     703       5.07703781       5.07703201       1.142E-06     13.72    <-- DIS
     704       5.07703452       5.07702893       1.101E-06     13.74    <-- DIS
     705       5.07703135       5.07702596       1.061E-06     13.76    <-- DIS
     706       5.07702830       5.07702310       1.023E-06     13.78    <-- DIS
     707       5.07702535       5.07702035       9.859E-07     13.80    <-- DIS
     708       5.07702251       5.07701769       9.501E-07     13.82    <-- DIS
     709       5.07701978       5.07701513       9.154E-07     13.84    <-- DIS
     710       5.07701714       5.07701266       8.820E-07     13.86    <-- DIS
     711       5.07701460       5.07701029       8.496E-07     13.88    <-- DIS
     712       5.07701216       5.07700800       8.183E-07     13.89    <-- DIS
     713       5.07700980       5.07700580       7.881E-07     13.91    <-- DIS
     714       5.07700753       5.07700368       7.589E-07     13.93    <-- DIS
     715       5.07700535       5.07700164       7.307E-07     13.95    <-- DIS
     716       5.07700324       5.07699967       7.034E-07     13.97    <-- DIS
     717       5.07700122       5.07699778       6.771E-07     13.99    <-- DIS
     718       5.07699927       5.07699596       6.517E-07     14.01    <-- DIS
     719       5.07699739       5.07699421       6.272E-07     14.03    <-- DIS
     720       5.07699559       5.07699252       6.036E-07     14.05    <-- DIS
     721       5.07699385       5.07699090       5.808E-07     14.07    <-- DIS
     722       5.07699218       5.07698934       5.588E-07     14.09    <-- DIS
     723       5.07699057       5.07698784       5.376E-07     14.11    <-- DIS
     724       5.07698902       5.07698640       5.172E-07     14.13    <-- DIS
     725       5.07698753       5.07698501       4.974E-07     14.15    <-- DIS
     726       5.07698610       5.07698367       4.784E-07     14.17    <-- DIS
     727       5.07698473       5.07698239       4.601E-07     14.19    <-- DIS
     728       5.07698340       5.07698116       4.424E-07     14.21    <-- DIS
     729       5.07698213       5.07697997       4.254E-07     14.23    <-- DIS
     730       5.07698090       5.07697883       4.090E-07     14.25    <-- DIS
     731       5.07697973       5.07697773       3.932E-07     14.27    <-- DIS
     732       5.07697859       5.07697668       3.780E-07     14.29    <-- DIS
     733       5.07697751       5.07697566       3.633E-07     14.30    <-- DIS
     734       5.07697646       5.07697469       3.492E-07     14.32    <-- DIS
     735       5.07697546       5.07697375       3.356E-07     14.34    <-- DIS
     736       5.07697449       5.07697285       3.225E-07     14.36    <-- DIS
     737       5.07697356       5.07697199       3.099E-07     14.38    <-- DIS
     738       5.07697267       5.07697116       2.977E-07     14.40    <-- DIS
     739       5.07697181       5.07697036       2.860E-07     14.42    <-- DIS
     740       5.07697099       5.07696960       2.748E-07     14.44    <-- DIS
     741       5.07697020       5.07696886       2.639E-07     14.46    <-- DIS
     742       5.07696944       5.07696815       2.535E-07     14.48    <-- DIS
     743       5.07696871       5.07696748       2.435E-07     14.50    <-- DIS
     744       5.07696801       5.07696682       2.338E-07     14.52    <-- DIS
     745       5.07696734       5.07696620       2.245E-07     14.54    <-- DIS
     746       5.07696669       5.07696560       2.156E-07     14.56    <-- DIS
     747       5.07696607       5.07696502       2.071E-07     14.58    <-- DIS
     748       5.07696548       5.07696447       1.988E-07     14.60    <-- DIS
     749       5.07696490       5.07696393       1.909E-07     14.62    <-- DIS
     750       5.07696435       5.07696342       1.832E-07     14.64    <-- DIS
     751       5.07696383       5.07696293       1.759E-07     14.66    <-- DIS
     752       5.07696332       5.07696246       1.689E-07     14.67    <-- DIS
     753       5.07696283       5.07696201       1.621E-07     14.69    <-- DIS
     754       5.07696237       5.07696158       1.556E-07     14.71    <-- DIS
     755       5.07696192       5.07696116       1.493E-07     14.73    <-- DIS
     756       5.07696149       5.07696076       1.433E-07     14.75    <-- DIS
     757       5.07696108       5.07696038       1.376E-07     14.77    <-- DIS
     758       5.07696068       5.07696001       1.320E-07     14.79    <-- DIS
     759       5.07696030       5.07695966       1.267E-07     14.81    <-- DIS
     760       5.07695994       5.07695932       1.216E-07     14.83    <-- DIS
     761       5.07695959       5.07695900       1.167E-07     14.85    <-- DIS
     762       5.07695925       5.07695868       1.119E-07     14.87    <-- DIS
     763       5.07695893       5.07695839       1.074E-07     14.89    <-- DIS
[...]
  WF centre and spread    2  ( -0.000000,  1.424457,  7.714460 )     3.63840050
  Sum of centres and spreads (  1.233616,  2.136685, 15.601527 )     7.08591429

    970    -0.355E-14     0.0000004347        7.0859146148      19.36  <-- CONV
        O_D=      0.6711984 O_OD=      1.3377648 O_TOT=      7.0859146 <-- SPRD
 Delta: O_D=  0.4165512E-10 O_OD= -0.4165890E-10 O_TOT= -0.3552714E-14 <-- DLTA
 ------------------------------------------------------------------------------
 Cycle:    971
  WF centre and spread    1  (  1.233616,  0.712228,  7.887066 )     3.44751379
  WF centre and spread    2  ( -0.000000,  1.424457,  7.714460 )     3.63840050
  Sum of centres and spreads (  1.233616,  2.136685, 15.601527 )     7.08591429

    971    -0.888E-14     0.0000004344        7.0859146148      19.36  <-- CONV
        O_D=      0.6711984 O_OD=      1.3377648 O_TOT=      7.0859146 <-- SPRD
 Delta: O_D=  0.7026091E-10 O_OD= -0.7027046E-10 O_TOT= -0.8881784E-14 <-- DLTA
 ------------------------------------------------------------------------------
 Cycle:    972
  WF centre and spread    1  (  1.233616,  0.712228,  7.887066 )     3.44751379
  WF centre and spread    2  ( -0.000000,  1.424457,  7.714460 )     3.63840050
  Sum of centres and spreads (  1.233616,  2.136685, 15.601527 )     7.08591429

    972    -0.160E-13     0.0000004340        7.0859146148      19.36  <-- CONV
        O_D=      0.6711984 O_OD=      1.3377648 O_TOT=      7.0859146 <-- SPRD
 Delta: O_D=  0.8767709E-10 O_OD= -0.8769230E-10 O_TOT= -0.1598721E-13 <-- DLTA
 ------------------------------------------------------------------------------
 Cycle:    973
  WF centre and spread    1  (  1.233616,  0.712228,  7.887066 )     3.44751379
  WF centre and spread    2  ( -0.000000,  1.424457,  7.714460 )     3.63840050
  Sum of centres and spreads (  1.233616,  2.136685, 15.601527 )     7.08591429

    973    -0.133E-13     0.0000004334        7.0859146148      19.36  <-- CONV
        O_D=      0.6711984 O_OD=      1.3377648 O_TOT=      7.0859146 <-- SPRD
 Delta: O_D=  0.1049906E-09 O_OD= -0.1050040E-09 O_TOT= -0.1332268E-13 <-- DLTA
 ------------------------------------------------------------------------------
 Cycle:    974
  WF centre and spread    1  (  1.233616,  0.712228,  7.887066 )     3.44751379
  WF centre and spread    2  ( -0.000000,  1.424457,  7.714460 )     3.63840050
  Sum of centres and spreads (  1.233616,  2.136685, 15.601527 )     7.08591429

    974    -0.266E-14     0.0000004328        7.0859146148      19.36  <-- CONV
        O_D=      0.6711984 O_OD=      1.3377648 O_TOT=      7.0859146 <-- SPRD
 Delta: O_D=  0.1750944E-10 O_OD= -0.1751244E-10 O_TOT= -0.2664535E-14 <-- DLTA
 ------------------------------------------------------------------------------
 Cycle:    975
  WF centre and spread    1  (  1.233616,  0.712228,  7.887066 )     3.44751379
  WF centre and spread    2  ( -0.000000,  1.424457,  7.714460 )     3.63840050
  Sum of centres and spreads (  1.233616,  2.136685, 15.601527 )     7.08591429

    975    -0.533E-14     0.0000004326        7.0859146148      19.36  <-- CONV
        O_D=      0.6711984 O_OD=      1.3377648 O_TOT=      7.0859146 <-- SPRD
 Delta: O_D=  0.3936240E-10 O_OD= -0.3936718E-10 O_TOT= -0.5329071E-14 <-- DLTA
 ------------------------------------------------------------------------------
 Cycle:    976
  WF centre and spread    1  (  1.233616,  0.712228,  7.887066 )     3.44751379
  WF centre and spread    2  ( -0.000000,  1.424457,  7.714460 )     3.63840050
  Sum of centres and spreads (  1.233616,  2.136685, 15.601527 )     7.08591429

    976    -0.622E-14     0.0000004324        7.0859146148      19.36  <-- CONV
        O_D=      0.6711984 O_OD=      1.3377648 O_TOT=      7.0859146 <-- SPRD
 Delta: O_D=  0.5246925E-10 O_OD= -0.5247558E-10 O_TOT= -0.6217249E-14 <-- DLTA
 ------------------------------------------------------------------------------
 Cycle:    977
  WF centre and spread    1  (  1.233616,  0.712228,  7.887066 )     3.44751379
  WF centre and spread    2  ( -0.000000,  1.424457,  7.714460 )     3.63840050
  Sum of centres and spreads (  1.233616,  2.136685, 15.601527 )     7.08591429

    977    -0.169E-13     0.0000004321        7.0859146148      19.37  <-- CONV
        O_D=      0.6711984 O_OD=      1.3377648 O_TOT=      7.0859146 <-- SPRD
 Delta: O_D=  0.1359406E-09 O_OD= -0.1359577E-09 O_TOT= -0.1687539E-13 <-- DLTA
 ------------------------------------------------------------------------------
 Cycle:    978
  WF centre and spread    1  (  1.233616,  0.712228,  7.887066 )     3.44751379
  WF centre and spread    2  ( -0.000000,  1.424457,  7.714460 )     3.63840050
  Sum of centres and spreads (  1.233616,  2.136685, 15.601527 )     7.08591429

    978    -0.160E-13     0.0000004312        7.0859146148      19.37  <-- CONV
        O_D=      0.6711984 O_OD=      1.3377648 O_TOT=      7.0859146 <-- SPRD
 Delta: O_D=  0.8703493E-10 O_OD= -0.8704992E-10 O_TOT= -0.1598721E-13 <-- DLTA
 ------------------------------------------------------------------------------
 Cycle:    979
  WF centre and spread    1  (  1.233616,  0.712228,  7.887066 )     3.44751379
  WF centre and spread    2  ( -0.000000,  1.424457,  7.714460 )     3.63840050
  Sum of centres and spreads (  1.233616,  2.136685, 15.601527 )     7.08591429

    979    -0.266E-13     0.0000004306        7.0859146148      19.37  <-- CONV
        O_D=      0.6711984 O_OD=      1.3377648 O_TOT=      7.0859146 <-- SPRD
 Delta: O_D=  0.2080620E-09 O_OD= -0.2080895E-09 O_TOT= -0.2664535E-13 <-- DLTA
 ------------------------------------------------------------------------------
 Cycle:    980
  WF centre and spread    1  (  1.233616,  0.712228,  7.887066 )     3.44751379
  WF centre and spread    2  ( -0.000000,  1.424457,  7.714460 )     3.63840050
  Sum of centres and spreads (  1.233616,  2.136685, 15.601527 )     7.08591429

    980    -0.799E-14     0.0000004293        7.0859146148      19.37  <-- CONV
        O_D=      0.6711984 O_OD=      1.3377648 O_TOT=      7.0859146 <-- SPRD
 Delta: O_D=  0.1737210E-10 O_OD= -0.1738010E-10 O_TOT= -0.7993606E-14 <-- DLTA
 ------------------------------------------------------------------------------
 Cycle:    981
  WF centre and spread    1  (  1.233616,  0.712228,  7.887066 )     3.44751379
  WF centre and spread    2  ( -0.000000,  1.424457,  7.714460 )     3.63840050
  Sum of centres and spreads (  1.233616,  2.136685, 15.601527 )     7.08591429

    981     0.888E-15     0.0000004292        7.0859146148      19.37  <-- CONV
        O_D=      0.6711984 O_OD=      1.3377648 O_TOT=      7.0859146 <-- SPRD
 Delta: O_D=  0.1110101E-10 O_OD= -0.1109979E-10 O_TOT=  0.8881784E-15 <-- DLTA
 ------------------------------------------------------------------------------
 Cycle:    982
  WF centre and spread    1  (  1.233616,  0.712228,  7.887066 )     3.44751380
  WF centre and spread    2  ( -0.000000,  1.424457,  7.714460 )     3.63840049
  Sum of centres and spreads (  1.233616,  2.136685, 15.601527 )     7.08591429

    982    -0.711E-14     0.0000004291        7.0859146148      19.37  <-- CONV
        O_D=      0.6711984 O_OD=      1.3377648 O_TOT=      7.0859146 <-- SPRD
 Delta: O_D=  0.5208756E-10 O_OD= -0.5209544E-10 O_TOT= -0.7105427E-14 <-- DLTA
 ------------------------------------------------------------------------------
 Cycle:    983
  WF centre and spread    1  (  1.233616,  0.712228,  7.887066 )     3.44751380
  WF centre and spread    2  ( -0.000000,  1.424457,  7.714460 )     3.63840049
  Sum of centres and spreads (  1.233616,  2.136685, 15.601527 )     7.08591429

    983    -0.888E-14     0.0000004288        7.0859146148      19.37  <-- CONV
        O_D=      0.6711984 O_OD=      1.3377648 O_TOT=      7.0859146 <-- SPRD
 Delta: O_D=  0.1019732E-09 O_OD= -0.1019809E-09 O_TOT= -0.8881784E-14 <-- DLTA
 ------------------------------------------------------------------------------
 Cycle:    984
  WF centre and spread    1  (  1.233616,  0.712228,  7.887066 )     3.44751380
  WF centre and spread    2  ( -0.000000,  1.424457,  7.714460 )     3.63840049
  Sum of centres and spreads (  1.233616,  2.136685, 15.601527 )     7.08591429

    984    -0.107E-13     0.0000004281        7.0859146148      19.37  <-- CONV
        O_D=      0.6711984 O_OD=      1.3377648 O_TOT=      7.0859146 <-- SPRD
 Delta: O_D=  0.8647161E-10 O_OD= -0.8648282E-10 O_TOT= -0.1065814E-13 <-- DLTA
 ------------------------------------------------------------------------------
 Cycle:    985
  WF centre and spread    1  (  1.233616,  0.712228,  7.887066 )     3.44751380
  WF centre and spread    2  ( -0.000000,  1.424457,  7.714460 )     3.63840049
  Sum of centres and spreads (  1.233616,  2.136685, 15.601527 )     7.08591429

    985    -0.160E-13     0.0000004276        7.0859146148      19.38  <-- CONV
        O_D=      0.6711984 O_OD=      1.3377648 O_TOT=      7.0859146 <-- SPRD
 Delta: O_D=  0.1035526E-09 O_OD= -0.1035687E-09 O_TOT= -0.1598721E-13 <-- DLTA
 ------------------------------------------------------------------------------
 Cycle:    986
  WF centre and spread    1  (  1.233616,  0.712228,  7.887066 )     3.44751380
  WF centre and spread    2  ( -0.000000,  1.424457,  7.714460 )     3.63840049
  Sum of centres and spreads (  1.233616,  2.136685, 15.601527 )     7.08591429

    986    -0.178E-14     0.0000004269        7.0859146148      19.38  <-- CONV
        O_D=      0.6711984 O_OD=      1.3377648 O_TOT=      7.0859146 <-- SPRD
 Delta: O_D=  0.8636980E-11 O_OD= -0.8638867E-11 O_TOT= -0.1776357E-14 <-- DLTA
 ------------------------------------------------------------------------------
 Cycle:    987
  WF centre and spread    1  (  1.233616,  0.712228,  7.887066 )     3.44751380
  WF centre and spread    2  ( -0.000000,  1.424457,  7.714460 )     3.63840049
  Sum of centres and spreads (  1.233616,  2.136685, 15.601527 )     7.08591429

    987    -0.444E-14     0.0000004269        7.0859146148      19.38  <-- CONV
        O_D=      0.6711984 O_OD=      1.3377648 O_TOT=      7.0859146 <-- SPRD
 Delta: O_D=  0.3454781E-10 O_OD= -0.3455169E-10 O_TOT= -0.4440892E-14 <-- DLTA
 ------------------------------------------------------------------------------
 Cycle:    988
  WF centre and spread    1  (  1.233616,  0.712228,  7.887066 )     3.44751380
  WF centre and spread    2  ( -0.000000,  1.424457,  7.714460 )     3.63840049
  Sum of centres and spreads (  1.233616,  2.136685, 15.601527 )     7.08591429

    988    -0.888E-14     0.0000004267        7.0859146148      19.38  <-- CONV
        O_D=      0.6711984 O_OD=      1.3377648 O_TOT=      7.0859146 <-- SPRD
 Delta: O_D=  0.5177625E-10 O_OD= -0.5178524E-10 O_TOT= -0.8881784E-14 <-- DLTA
 ------------------------------------------------------------------------------
 Cycle:    989
  WF centre and spread    1  (  1.233616,  0.712228,  7.887066 )     3.44751380
  WF centre and spread    2  ( -0.000000,  1.424457,  7.714460 )     3.63840049
  Sum of centres and spreads (  1.233616,  2.136685, 15.601527 )     7.08591429

    989    -0.799E-14     0.0000004263        7.0859146148      19.38  <-- CONV
        O_D=      0.6711984 O_OD=      1.3377648 O_TOT=      7.0859146 <-- SPRD
 Delta: O_D=  0.6894896E-10 O_OD= -0.6895751E-10 O_TOT= -0.7993606E-14 <-- DLTA
 ------------------------------------------------------------------------------
 Cycle:    990
  WF centre and spread    1  (  1.233616,  0.712228,  7.887066 )     3.44751380
  WF centre and spread    2  ( -0.000000,  1.424457,  7.714460 )     3.63840049
  Sum of centres and spreads (  1.233616,  2.136685, 15.601527 )     7.08591429

    990    -0.133E-13     0.0000004259        7.0859146148      19.38  <-- CONV
        O_D=      0.6711984 O_OD=      1.3377648 O_TOT=      7.0859146 <-- SPRD
 Delta: O_D=  0.8604017E-10 O_OD= -0.8605405E-10 O_TOT= -0.1332268E-13 <-- DLTA
 ------------------------------------------------------------------------------
 Cycle:    991
  WF centre and spread    1  (  1.233616,  0.712228,  7.887066 )     3.44751380
  WF centre and spread    2  ( -0.000000,  1.424457,  7.714460 )     3.63840049
  Sum of centres and spreads (  1.233616,  2.136685, 15.601527 )     7.08591429

    991    -0.240E-13     0.0000004253        7.0859146148      19.38  <-- CONV
        O_D=      0.6711984 O_OD=      1.3377648 O_TOT=      7.0859146 <-- SPRD
 Delta: O_D=  0.2218012E-09 O_OD= -0.2218252E-09 O_TOT= -0.2398082E-13 <-- DLTA
 ------------------------------------------------------------------------------
 Cycle:    992
  WF centre and spread    1  (  1.233616,  0.712228,  7.887066 )     3.44751380
  WF centre and spread    2  ( -0.000000,  1.424457,  7.714460 )     3.63840049
  Sum of centres and spreads (  1.233616,  2.136685, 15.601527 )     7.08591429

    992    -0.107E-13     0.0000004239        7.0859146148      19.38  <-- CONV
        O_D=      0.6711984 O_OD=      1.3377648 O_TOT=      7.0859146 <-- SPRD
 Delta: O_D=  0.1715350E-10 O_OD= -0.1716383E-10 O_TOT= -0.1065814E-13 <-- DLTA
 ------------------------------------------------------------------------------
 Cycle:    993
  WF centre and spread    1  (  1.233616,  0.712228,  7.887066 )     3.44751380
  WF centre and spread    2  ( -0.000000,  1.424457,  7.714460 )     3.63840049
  Sum of centres and spreads (  1.233616,  2.136685, 15.601527 )     7.08591429

    993    -0.355E-14     0.0000004238        7.0859146148      19.39  <-- CONV
        O_D=      0.6711984 O_OD=      1.3377648 O_TOT=      7.0859146 <-- SPRD
 Delta: O_D=  0.2792222E-10 O_OD= -0.2792500E-10 O_TOT= -0.3552714E-14 <-- DLTA
 ------------------------------------------------------------------------------
 Cycle:    994
  WF centre and spread    1  (  1.233616,  0.712228,  7.887066 )     3.44751380
  WF centre and spread    2  ( -0.000000,  1.424457,  7.714460 )     3.63840049
  Sum of centres and spreads (  1.233616,  2.136685, 15.601527 )     7.08591429

    994     0.000E+00     0.0000004236        7.0859146148      19.39  <-- CONV
        O_D=      0.6711984 O_OD=      1.3377648 O_TOT=      7.0859146 <-- SPRD
 Delta: O_D=  0.3462119E-10 O_OD= -0.3462119E-10 O_TOT=  0.0000000E+00 <-- DLTA
 ------------------------------------------------------------------------------
 Cycle:    995
  WF centre and spread    1  (  1.233616,  0.712228,  7.887066 )     3.44751381
  WF centre and spread    2  ( -0.000000,  1.424457,  7.714460 )     3.63840048
  Sum of centres and spreads (  1.233616,  2.136685, 15.601527 )     7.08591429

    995    -0.107E-13     0.0000004234        7.0859146148      19.39  <-- CONV
        O_D=      0.6711984 O_OD=      1.3377648 O_TOT=      7.0859146 <-- SPRD
 Delta: O_D=  0.6848966E-10 O_OD= -0.6850054E-10 O_TOT= -0.1065814E-13 <-- DLTA
 ------------------------------------------------------------------------------
 Cycle:    996
  WF centre and spread    1  (  1.233616,  0.712228,  7.887066 )     3.44751381
  WF centre and spread    2  ( -0.000000,  1.424457,  7.714460 )     3.63840048
  Sum of centres and spreads (  1.233616,  2.136685, 15.601527 )     7.08591429

    996    -0.107E-13     0.0000004230        7.0859146148      19.39  <-- CONV
        O_D=      0.6711984 O_OD=      1.3377648 O_TOT=      7.0859146 <-- SPRD
 Delta: O_D=  0.8547152E-10 O_OD= -0.8548207E-10 O_TOT= -0.1065814E-13 <-- DLTA
 ------------------------------------------------------------------------------
 Cycle:    997
  WF centre and spread    1  (  1.233616,  0.712228,  7.887066 )     3.44751381
  WF centre and spread    2  ( -0.000000,  1.424457,  7.714460 )     3.63840048
  Sum of centres and spreads (  1.233616,  2.136685, 15.601527 )     7.08591429

    997    -0.142E-13     0.0000004224        7.0859146148      19.39  <-- CONV
        O_D=      0.6711984 O_OD=      1.3377648 O_TOT=      7.0859146 <-- SPRD
 Delta: O_D=  0.1023460E-09 O_OD= -0.1023606E-09 O_TOT= -0.1421085E-13 <-- DLTA
 ------------------------------------------------------------------------------
 Cycle:    998
  WF centre and spread    1  (  1.233616,  0.712228,  7.887066 )     3.44751381
  WF centre and spread    2  ( -0.000000,  1.424457,  7.714460 )     3.63840048
  Sum of centres and spreads (  1.233616,  2.136685, 15.601527 )     7.08591429

    998    -0.178E-14     0.0000004218        7.0859146148      19.39  <-- CONV
        O_D=      0.6711984 O_OD=      1.3377648 O_TOT=      7.0859146 <-- SPRD
 Delta: O_D=  0.1706668E-10 O_OD= -0.1706835E-10 O_TOT= -0.1776357E-14 <-- DLTA
 ------------------------------------------------------------------------------
 Cycle:    999
  WF centre and spread    1  (  1.233616,  0.712228,  7.887066 )     3.44751381
  WF centre and spread    2  ( -0.000000,  1.424457,  7.714460 )     3.63840048
  Sum of centres and spreads (  1.233616,  2.136685, 15.601527 )     7.08591429

    999    -0.444E-14     0.0000004217        7.0859146148      19.39  <-- CONV
        O_D=      0.6711984 O_OD=      1.3377648 O_TOT=      7.0859146 <-- SPRD
 Delta: O_D=  0.2119194E-10 O_OD= -0.2119682E-10 O_TOT= -0.4440892E-14 <-- DLTA
 ------------------------------------------------------------------------------
 Cycle:   1000
  WF centre and spread    1  (  1.233616,  0.712228,  7.887066 )     3.44751381
  WF centre and spread    2  ( -0.000000,  1.424457,  7.714460 )     3.63840048
  Sum of centres and spreads (  1.233616,  2.136685, 15.601527 )     7.08591429

   1000    -0.711E-14     0.0000004215        7.0859146148      19.39  <-- CONV
        O_D=      0.6711984 O_OD=      1.3377648 O_TOT=      7.0859146 <-- SPRD
 Delta: O_D=  0.5116219E-10 O_OD= -0.5116885E-10 O_TOT= -0.7105427E-14 <-- DLTA
 ------------------------------------------------------------------------------

 Writing checkpoint file graphene.chk... done

 Final State
  WF centre and spread    1  (  1.233616,  0.712228,  7.887066 )     3.44751381
  WF centre and spread    2  ( -0.000000,  1.424457,  7.714460 )     3.63840048
  Sum of centres and spreads (  1.233616,  2.136685, 15.601527 )     7.08591429

         Spreads (Ang^2)       Omega I      =     5.076951441
        ================       Omega D      =     0.671198353
                               Omega OD     =     1.337764821
    Final Spread (Ang^2)       Omega Total  =     7.085914615
 ------------------------------------------------------------------------------

 Wannier centres written to file graphene_centres.xyz
 Time for wannierise            1.323 (sec)

 Writing checkpoint file graphene.chk... done

 *---------------------------------------------------------------------------*
 |                               PLOTTING                                    |
 *---------------------------------------------------------------------------*


 Calculating interpolated band-structure

 Time to calculate interpolated band structure       0.009 (sec)

 Time for plotting              0.033 (sec)
 Total Execution Time          19.691 (sec)

 *===========================================================================*
 |                             TIMING INFORMATION                            |
 *===========================================================================*
 |    Tag                                                Ncalls      Time (s)|
 |---------------------------------------------------------------------------|
 |kmesh: get                                        :         1         0.053|
 |overlap: allocate                                 :         1         0.000|
 |overlap: read                                     :         1         0.215|
 |dis: main                                         :         1        18.028|
 |wann: main                                        :         1         1.323|
 |plot: main                                        :         1         0.033|
 *---------------------------------------------------------------------------*

 All done: wannier90 exiting
